 Gaussian 16, Revision C.01,

 ---------------------------------------------
 #p scf=tight opt aug-cc-PVTZ B3LYP NoSymmetry
 ---------------------------------------------

 ----------
 4cyanp Opt
 ----------
 Symbolic Z-matrix:
 Charge =  0 Multiplicity = 1

 SCF Done:  E(RB3LYP) =  -323.880578351     A.U. after   12 cycles
 SCF Done:  E(RB3LYP) =  -323.883334915     A.U. after   10 cycles
 SCF Done:  E(RB3LYP) =  -323.882043688     A.U. after   11 cycles
 SCF Done:  E(RB3LYP) =  -323.884774246     A.U. after   10 cycles
 SCF Done:  E(RB3LYP) =  -323.885124818     A.U. after   10 cycles
 SCF Done:  E(RB3LYP) =  -323.885232141     A.U. after   10 cycles
 SCF Done:  E(RB3LYP) =  -323.885242903     A.U. after    8 cycles
 SCF Done:  E(RB3LYP) =  -323.885245141     A.U. after    8 cycles
 SCF Done:  E(RB3LYP) =  -323.885245964     A.U. after    8 cycles
 SCF Done:  E(RB3LYP) =  -323.885246292     A.U. after    7 cycles
 SCF Done:  E(RB3LYP) =  -323.885246383     A.U. after    7 cycles
 Optimization completed.
    -- Stationary point found.
 Normal termination of Gaussian 16 at Tue Oct 25 12:35:17 2022.
 Gaussian 16:  ES64L-G16RevC.01  3-Jul-2019

 ----------------------------------------------------------------------
 # CPHF=RdFreq B3LYP aug-cc-PVTZ Freq(ROA,printderivatives) Geom=Check
 Guess=Read polar(ROA,Raman) NoSymmetry int=superfine
 ----------------------------------------------------------------------

 ------
 4cyano
 ------
 Structure from the checkpoint file:  "4cyano.chk"
 Charge =  0 Multiplicity = 1

                          Input orientation:
 ---------------------------------------------------------------------
 Center     Atomic      Atomic             Coordinates (Angstroms)
 Number     Number       Type             X           Y           Z
 ---------------------------------------------------------------------
      1          6           0       -0.619780    2.288340    0.339195
      2          7           0        0.509787    1.409138    0.091023
      3          1           0        0.391979    0.524930    0.570493
      4          1           0        0.571726    1.190991   -0.897242
      5          6           0       -0.377569    3.658924   -0.305832
      6          1           0       -1.197766    4.344416   -0.099796
      7          1           0       -0.275472    3.557589   -1.387822
      8          1           0        0.546711    4.078691    0.086330
      9          6           0       -1.951800    1.727911   -0.159412
     10          1           0       -0.716237    2.427872    1.417569
     11          8           0       -2.082012    0.868135   -0.992336
     12          8           0       -3.008683    2.329765    0.438549
     13          1           0       -3.812723    1.949459    0.054320
 ---------------------------------------------------------------------

 SCF Done:  E(RB3LYP) =  -323.885246118     A.U. after    3 cycles

 Alpha  occ. eigenvalues --  -19.18917 -19.13212 -14.30936 -10.31336 -10.22878
 Alpha  occ. eigenvalues --  -10.17802  -1.12147  -1.03325  -0.90483  -0.76378
 Alpha  occ. eigenvalues --   -0.67824  -0.59840  -0.52777  -0.50398  -0.49695
 Alpha  occ. eigenvalues --   -0.46384  -0.44479  -0.42634  -0.39316  -0.38790
 Alpha  occ. eigenvalues --   -0.36862  -0.33999  -0.29661  -0.26194
 Alpha virt. eigenvalues --   -0.01858  -0.01324  -0.00199   0.00614   0.01222
 Alpha virt. eigenvalues --    0.03162   0.03474   0.03934   0.05078   0.05341
 Alpha virt. eigenvalues --    0.06351   0.06942   0.07926   0.08176   0.08496

 Mulliken charges:
               1
     1  C    0.832141
     2  N   -0.549877
     3  H    0.021564
     4  H    0.049811
     5  C   -0.820102
     6  H    0.203570
     7  H    0.212714
     8  H    0.189488
     9  C    0.573252
    10  H    0.238011
    11  O   -0.743897
    12  O   -0.382007
    13  H    0.175332
 Sum of Mulliken charges =  -0.00000

 Dipole moment (field-independent basis, Debye):
    X=             -0.8333    Y=              0.7373    Z=              0.6846  Tot=              1.3064
 Quadrupole moment (field-independent basis, Debye-Ang):
   XX=            -34.0703   YY=            -34.1172   ZZ=            -37.6165
   XY=             -3.6882   XZ=             -2.2620   YZ=             -1.7103

  Exact polarizability:       0.000       0.000       0.000       0.000       0.000       0.000
 Approx polarizability:      78.114      -1.043      77.577      -1.592       8.974      74.811

                      1                      2                      3
                      A                      A                      A
 Frequencies --     47.1256               204.4108               224.2488
 Red. masses --      4.7045                 1.1413                 1.1107
 Frc consts  --      0.0062                 0.0281                 0.0329
 IR Inten    --      2.2327                39.0600                 0.5876

                      4                      5                      6
                      A                      A                      A
 Frequencies --    238.7768               299.4450               375.7821
 Red. masses --      3.2857                 2.7895                 3.0888
 Frc consts  --      0.1104                 0.1474                 0.2570
 IR Inten    --      1.8345                 7.8093                12.8323

                      7                      8                      9
                      A                      A                      A
 Frequencies --    495.4917               595.6654               635.2425
 Red. masses --      3.4390                 1.2473                 3.2548
 Frc consts  --      0.4975                 0.2607                 0.7738
 IR Inten    --     17.1611                90.3132                 9.2741

                     10                     11                     12
                      A                      A                      A
 Frequencies --    755.3252               786.6754               883.8875
 Red. masses --      4.1973                 2.6384                 1.5311
 Frc consts  --      1.4109                 0.9620                 0.7048
 IR Inten    --     29.8069                35.2211               133.7008

                     13                     14                     15
                      A                      A                      A
 Frequencies --    921.8234              1017.9359              1084.4430
 Red. masses --      2.1492                 1.3634                 1.6532
 Frc consts  --      1.0760                 0.8324                 1.1455
 IR Inten    --      1.0934                 1.6242                24.0321

                     16                     17                     18
                      A                      A                      A
 Frequencies --   1122.9734              1164.8765              1273.8455
 Red. masses --      3.4050                 2.0827                 1.6513
 Frc consts  --      2.5299                 1.6651                 1.5788
 IR Inten    --    286.1003                17.2574                 1.1836

                     19                     20                     21
                      A                      A                      A
 Frequencies --   1293.8767              1353.4765              1400.7947
 Red. masses --      1.4075                 1.7938                 1.2249
 Frc consts  --      1.3883                 1.9361                 1.4161
 IR Inten    --      2.7652                16.9093                 0.5202

                     22                     23                     24
                      A                      A                      A
 Frequencies --   1416.0432              1494.9499              1500.1310
 Red. masses --      1.3694                 1.0459                 1.0535
 Frc consts  --      1.6178                 1.3772                 1.3969
 IR Inten    --      8.1803                 7.2942                 6.9521

                     25                     26                     27
                      A                      A                      A
 Frequencies --   1669.9475              1802.9960              3035.3996
 Red. masses --      1.0909                 9.7404                 1.0409
 Frc consts  --      1.7925                18.6560                 5.6506
 IR Inten    --     23.2846               295.5100                11.2222

                     28                     29                     30
                      A                      A                      A
 Frequencies --   3050.4420              3103.2978              3123.4976
 Red. masses --      1.0801                 1.0983                 1.1035
 Frc consts  --      5.9214                 6.2321                 6.3430
 IR Inten    --     12.9175                20.9601                11.8786

                     31                     32                     33
                      A                      A                      A
 Frequencies --   3491.9920              3563.8019              3729.7732
 Red. masses --      1.0495                 1.0922                 1.0642
 Frc consts  --      7.5402                 8.1732                 8.7228
 IR Inten    --      1.6718                 4.5682                56.1116

 - Thermochemistry -
 -------------------
 Temperature   298.150 Kelvin.  Pressure   1.00000 Atm.
 Atom     1 has atomic number  6 and mass  12.00000

 Molecular mass:    89.04768 amu.
 Principal axes and moments of inertia in atomic units:
                           1         2         3
     Eigenvalues --   355.64963 595.84710 791.19488
           X            0.97292  -0.23078   0.01301
           Y            0.22682   0.94238  -0.24590
           Z            0.04449   0.24219   0.96921
 This molecule is an asymmetric top.
 Rotational symmetry number  1.
 Rotational temperatures (Kelvin)      0.24354     0.14536     0.10947
 Rotational constants (GHZ):           5.07449     3.02887     2.28103
 Zero-point vibrational energy     282069.8 (Joules/Mol)
                                   67.41631 (Kcal/Mol)
 Warning -- explicit consideration of   8 degrees of freedom as
           vibrations may cause significant error
 Vibrational temperatures:     67.80   294.10   322.64   343.55   430.83
          (Kelvin)            540.67   712.90   857.03   913.97  1086.74
                             1131.85  1271.72  1326.30  1464.58  1560.27
                             1615.71  1676.00  1832.78  1861.60  1947.35
                             2015.43  2037.37  2150.90  2158.35  2402.68
                             2594.11  4367.26  4388.91  4464.95  4494.02
                             5024.20  5127.52  5366.31

 Zero-point correction=                           0.107435 (Hartree/Particle)
 Thermal correction to Energy=                    0.114420
 Thermal correction to Enthalpy=                  0.115364
 Thermal correction to Gibbs Free Energy=         0.076451
 Sum of electronic and zero-point Energies=           -323.777811
 Sum of electronic and thermal Energies=              -323.770826
 Sum of electronic and thermal Enthalpies=            -323.769882
 Sum of electronic and thermal Free Energies=         -323.808795

                     E (Thermal)             CV                S
                      KCal/Mol        Cal/Mol-Kelvin    Cal/Mol-Kelvin
 Total                   71.799             24.209             81.899
 Electronic               0.000              0.000              0.000
 Translational            0.889              2.981             39.372
 Rotational               0.889              2.981             26.619
 Vibrational             70.022             18.248             15.908
 Vibration     1          0.595              1.979              4.935
 Vibration     2          0.640              1.834              2.093
 Vibration     3          0.649              1.804              1.925
 Vibration     4          0.657              1.781              1.812
 Vibration     5          0.692              1.675              1.420
 Vibration     6          0.747              1.522              1.056
 Vibration     7          0.851              1.260              0.669
 Vibration     8          0.953              1.041              0.457

 Optimization completed.
    -- Stationary point found.
 Normal termination of Gaussian 16 at Tue Oct 25 13:03:31 2022.
